! TOUCHSTONE file generated by CST MICROWAVE STUDIO
! Date and time: Fri Dec 29 02:23:16 2023
! Project name: 28 GHz Patch Antenna.cst
! Parameters = {Lf=0.259; Lg=7; Lp=2.482; Lt=2; hg=0.05; hp=0.05; hs=0.5; wf=1.1184; wt=0.1127}
! Header version: 2018
! Port assignment regex: !\s*Touchstone port\s*([0-9]+)\s*=\s*(CST MWS port|CST DS port)\s*([0-9]+|Zmin|Zmax)\s*\(\"(.*)\"\)(\s*mode\s*([0-9]+))?.*
! Touchstone port assignment:
! Touchstone port 1 = CST MWS port 1 ("")
! Touchstone port 2 = CST MWS port 2 ("")
# GHz S MA R 50
23                     0.9511939       -52.00679       0.05729344        37.36481       0.05729358        37.36473        0.9511849       -52.00996
23.01                  0.9513028       -52.05803       0.05701295         37.2889       0.05701307        37.28882        0.9512934        -52.0612
23.02                  0.9514302       -52.11021       0.05673342        37.22164       0.05673354        37.22155        0.9514202       -52.11337
23.03                  0.9515753       -52.16335        0.0564552        37.16303       0.05645531        37.16294        0.9515648       -52.16649
23.04                  0.9517375       -52.21749       0.05617863        37.11308       0.05617875        37.11299        0.9517266       -52.22061
23.05                  0.9519161       -52.27266       0.05590406        37.07178       0.05590416        37.07168        0.9519045       -52.27576
23.06                    0.95211        -52.3289       0.05563179        37.03911       0.05563189        37.03901        0.9520982       -52.33199
23.07                  0.9523186       -52.38624       0.05536216        37.01503       0.05536225        37.01493        0.9523063       -52.38932
23.08                  0.9525412       -52.44473        0.0550955        36.99948       0.05509558        36.99939        0.9525286       -52.44778
23.09                  0.9527768       -52.50437        0.0548321         36.9924       0.05483218        36.99231        0.9527638       -52.50741
23.1                   0.9530245       -52.56522       0.05457227         36.9937       0.05457235         36.9936         0.953011       -52.56823
23.11                  0.9532836       -52.62728       0.05431634        37.00325       0.05431641        37.00315        0.9532698       -52.63026
23.12                  0.9535532       -52.69056       0.05406458        37.02096       0.05406464        37.02085        0.9535391       -52.69353
23.13                  0.9538323       -52.75511       0.05381727        37.04667       0.05381733        37.04656        0.9538178       -52.75805
23.14                  0.9541201       -52.82092        0.0535747        37.08023       0.05357476        37.08012        0.9541054       -52.82384
23.15                  0.9544159       -52.88802       0.05333712        37.12146       0.05333717        37.12136        0.9544008       -52.89092
23.16                  0.9547187       -52.95641       0.05310481        37.17017       0.05310485        37.17006        0.9547033       -52.95929
23.17                  0.9550275       -53.02612       0.05287798        37.22614       0.05287802        37.22603        0.9550118       -53.02897
23.18                  0.9553413       -53.09714       0.05265688        37.28916       0.05265691        37.28905        0.9553254       -53.09996
23.19                  0.9556596       -53.16949       0.05244174        37.35898       0.05244176        37.35887        0.9556437       -53.17227
23.2                   0.9559815       -53.24314       0.05223275        37.43533       0.05223278        37.43522        0.9559651        -53.2459
23.21                  0.9563059       -53.31812       0.05203012        37.51793       0.05203014        37.51782        0.9562893       -53.32086
23.22                   0.956632       -53.39443       0.05183402         37.6065       0.05183403         37.6064        0.9566153       -53.39713
23.23                   0.956959       -53.47205       0.05164463        37.70071       0.05164463        37.70062        0.9569423       -53.47473
23.24                  0.9572861       -53.55099       0.05146209        37.80026       0.05146209        37.80017        0.9572693       -53.55364
23.25                  0.9576124       -53.63123       0.05128653        37.90481       0.05128653        37.90471        0.9575954       -53.63385
23.26                  0.9579371       -53.71277       0.05111809          38.014       0.05111809         38.0139          0.95792       -53.71536
23.27                  0.9582593       -53.79559       0.05095687        38.12746       0.05095686        38.12737        0.9582421       -53.79816
23.28                  0.9585784       -53.87968       0.05080296        38.24485       0.05080295        38.24475        0.9585612       -53.88222
23.29                  0.9588935       -53.96504       0.05065643        38.36576        0.0506564        38.36567        0.9588763       -53.96755
23.3                   0.9592039       -54.05163       0.05051733        38.48982       0.05051731        38.48972        0.9591867       -54.05411
23.31                  0.9595087       -54.13945       0.05038571        38.61662       0.05038569        38.61652        0.9594915        -54.1419
23.32                  0.9598075       -54.22848        0.0502616        38.74577       0.05026157        38.74568        0.9597903        -54.2309
23.33                  0.9600993       -54.31867         0.050145        38.87685       0.05014497        38.87677        0.9600822       -54.32107
23.34                  0.9603836       -54.41003       0.05003592        39.00946       0.05003587        39.00939        0.9603666        -54.4124
23.35                  0.9606597       -54.50253       0.04993429         39.1432       0.04993426        39.14312        0.9606428       -54.50488
23.36                  0.9609268       -54.59615       0.04984011        39.27765       0.04984006        39.27758          0.96091       -54.59846
23.37                  0.9611845       -54.69084       0.04975331        39.41241       0.04975326        39.41234        0.9611677       -54.69312
23.38                  0.9614322       -54.78659       0.04967381        39.54705       0.04967376          39.547        0.9614155       -54.78885
23.39                  0.9616691       -54.88337       0.04960152        39.68121       0.04960147        39.68116        0.9616527        -54.8856
23.4                    0.961895       -54.98115       0.04953635        39.81446        0.0495363        39.81441        0.9618786       -54.98336
23.41                  0.9621091       -55.07989       0.04947818        39.94644       0.04947813        39.94639         0.962093       -55.08207
23.42                   0.962311       -55.17957       0.04942687        40.07675       0.04942681        40.07671        0.9622952       -55.18173
23.43                  0.9625002       -55.28016       0.04938227        40.20503       0.04938222        40.20499        0.9624847       -55.28229
23.44                  0.9626766        -55.3816       0.04934425         40.3309       0.04934418        40.33087        0.9626612       -55.38375
23.45                  0.9628392        -55.4839       0.04931261        40.45406       0.04931255        40.45402        0.9628242       -55.48598
23.46                  0.9629881         -55.587       0.04928718        40.57412       0.04928711        40.57409        0.9629731       -55.58905
23.47                  0.9631226       -55.69083       0.04926776        40.69079        0.0492677        40.69077         0.963108       -55.69291
23.48                  0.9632426       -55.79542       0.04925416        40.80376       0.04925409        40.80375        0.9632282       -55.79747
23.49                  0.9633477       -55.90072       0.04924615        40.91273       0.04924608        40.91272        0.9633336       -55.90273
23.5                   0.9634376       -56.00669       0.04924352        41.01743       0.04924345        41.01742        0.9634237       -56.00864
23.51                   0.963512       -56.11326       0.04924604        41.11759       0.04924597        41.11759        0.9634986       -56.11521
23.52                  0.9635709       -56.22041       0.04925348        41.21298       0.04925341        41.21298        0.9635578       -56.22238
23.53                   0.963614       -56.32812       0.04926559        41.30336       0.04926552        41.30338        0.9636011       -56.33003
23.54                   0.963641       -56.43631       0.04928211        41.38854       0.04928204        41.38856        0.9636286       -56.43822
23.55                  0.9636519       -56.54501       0.04930279        41.46833       0.04930273        41.46833        0.9636398       -56.54692
23.56                  0.9636466       -56.65415       0.04932739        41.54252       0.04932733        41.54253        0.9636347       -56.65603
23.57                  0.9636248        -56.7637       0.04935564        41.61098       0.04935558          41.611        0.9636134       -56.76555
23.58                  0.9635868       -56.87357       0.04938727        41.67357        0.0493872         41.6736        0.9635757       -56.87545
23.59                  0.9635323       -56.98381       0.04942201        41.73016       0.04942195        41.73019        0.9635215       -56.98566
23.6                   0.9634614       -57.09431        0.0494596        41.78066       0.04945954        41.78068        0.9634509       -57.09616
23.61                  0.9633739       -57.20509       0.04949976        41.82496        0.0494997        41.82499        0.9633639       -57.20693
23.62                  0.9632701       -57.31605       0.04954225          41.863       0.04954219        41.86304        0.9632605        -57.3179
23.63                    0.96315       -57.42724       0.04958676        41.89473        0.0495867        41.89478        0.9631407       -57.42905
23.64                  0.9630136       -57.53858       0.04963305         41.9201       0.04963299        41.92014        0.9630047       -57.54036
23.65                  0.9628611       -57.65001       0.04968085        41.93909       0.04968079        41.93913        0.9628526       -57.65179
23.66                  0.9626927       -57.76154       0.04972989        41.95168       0.04972984        41.95173        0.9626846       -57.76332
23.67                  0.9625084       -57.87309       0.04977992        41.95788       0.04977987        41.95794        0.9625007       -57.87489
23.68                  0.9623084       -57.98467       0.04983067        41.95771       0.04983061        41.95776        0.9623011       -57.98648
23.69                  0.9620931       -58.09624       0.04988189        41.95119       0.04988184        41.95124        0.9620861       -58.09802
23.7                   0.9618625       -58.20776       0.04993333        41.93837       0.04993328        41.93843        0.9618559       -58.20953
23.71                  0.9616168        -58.3192       0.04998475        41.91931        0.0499847        41.91937        0.9616107       -58.32097
23.72                  0.9613566       -58.43055       0.05003589        41.89406       0.05003586        41.89412        0.9613507       -58.43229
23.73                  0.9610818       -58.54173       0.05008654         41.8627        0.0500865        41.86276        0.9610763        -58.5435
23.74                  0.9607929       -58.65275       0.05013645        41.82532       0.05013642        41.82538        0.9607878       -58.65453
23.75                  0.9604902       -58.76359       0.05018541        41.78202       0.05018537        41.78209        0.9604853       -58.76536
23.76                  0.9601739        -58.8742       0.05023318         41.7329       0.05023315        41.73297        0.9601695       -58.87596
23.77                  0.9598445       -58.98458       0.05027956        41.67806       0.05027954        41.67815        0.9598404       -58.98636
23.78                  0.9595023       -59.09469       0.05032436        41.61765       0.05032433        41.61773        0.9594986       -59.09645
23.79                  0.9591476       -59.20451       0.05036735        41.55176       0.05036733        41.55184        0.9591442       -59.20629
23.8                    0.958781       -59.31401       0.05040835        41.48055       0.05040833        41.48067        0.9587779       -59.31579
23.81                  0.9584029       -59.42319       0.05044717        41.40418       0.05044714        41.40426        0.9583999       -59.42498
23.82                  0.9580133         -59.532       0.05048363        41.32276       0.05048362        41.32284        0.9580109        -59.5338
23.83                   0.957613       -59.64046       0.05051757        41.23647       0.05051755        41.23652         0.957611       -59.64224
23.84                  0.9572025       -59.74851       0.05054881         41.1454        0.0505488        41.14551        0.9572005       -59.75032
23.85                  0.9567818       -59.85616       0.05057719        41.04984       0.05057718        41.04989        0.9567803       -59.85797
23.86                  0.9563519       -59.96338       0.05060258        40.94979       0.05060257         40.9499        0.9563506        -59.9652
23.87                  0.9559128       -60.07018       0.05062481        40.84558       0.05062481        40.84568        0.9559119         -60.072
23.88                  0.9554654       -60.17651       0.05064377        40.73731       0.05064377        40.73739        0.9554646       -60.17835
23.89                  0.9550098       -60.28239       0.05065932        40.62511       0.05065932        40.62522        0.9550092       -60.28424
23.9                   0.9545466       -60.38781       0.05067134        40.50924       0.05067134        40.50935        0.9545462       -60.38966
23.91                  0.9540763       -60.49274       0.05067971        40.38986       0.05067972        40.38997        0.9540762       -60.49459
23.92                  0.9535994       -60.59717       0.05068433        40.26716       0.05068434        40.26724        0.9535994       -60.59905
23.93                  0.9531163       -60.70112       0.05068511        40.14126       0.05068512        40.14137        0.9531167         -60.703
23.94                  0.9526275       -60.80456       0.05068195        40.01245       0.05068195         40.0125        0.9526281       -60.80644
23.95                  0.9521337        -60.9075       0.05067475        39.88081       0.05067477        39.88087        0.9521344        -60.9094
23.96                  0.9516351       -61.00992       0.05066346         39.7466       0.05066348        39.74669         0.951636       -61.01183
23.97                  0.9511323       -61.11183       0.05064801        39.61001       0.05064803        39.61006        0.9511334       -61.11375
23.98                  0.9506259       -61.21323       0.05062832         39.4712       0.05062834        39.47125        0.9506271       -61.21516
23.99                  0.9501161       -61.31412       0.05060434        39.33038       0.05060437        39.33046        0.9501177       -61.31606
24                     0.9496037       -61.41449       0.05057604        39.18775       0.05057606         39.1878        0.9496053       -61.41645
24.01                   0.949089       -61.51437       0.05054336         39.0435       0.05054338        39.04355        0.9490908       -61.51632
24.02                  0.9485727       -61.61372       0.05050627        38.89778        0.0505063        38.89783        0.9485745       -61.61569
24.03                  0.9480549       -61.71259       0.05046475        38.75087       0.05046479        38.75092        0.9480568       -61.71458
24.04                  0.9475362       -61.81096       0.05041878        38.60289       0.05041881        38.60295        0.9475382       -61.81295
24.05                  0.9470171       -61.90884       0.05036834        38.45403       0.05036837        38.45409        0.9470193       -61.91086
24.06                  0.9464981       -62.00625       0.05031343        38.30454       0.05031346        38.30462        0.9465004       -62.00827
24.07                  0.9459796       -62.10319       0.05025404        38.15459       0.05025408        38.15464         0.945982       -62.10522
24.08                   0.945462       -62.19967       0.05019019        38.00434       0.05019022        38.00439        0.9454643       -62.20171
24.09                  0.9449457        -62.2957       0.05012188          37.854       0.05012192        37.85405         0.944948       -62.29776
24.1                   0.9444311       -62.39131       0.05004914        37.70376       0.05004918        37.70381        0.9444335       -62.39338
24.11                  0.9439187        -62.4865       0.04997199        37.55383       0.04997203        37.55391         0.943921       -62.48857
24.12                  0.9434087       -62.58129       0.04989046        37.40437        0.0498905        37.40445        0.9434112       -62.58336
24.13                  0.9429018       -62.67567       0.04980459        37.25562       0.04980464        37.25567        0.9429042       -62.67776
24.14                   0.942398       -62.76969       0.04971443        37.10767       0.04971448        37.10773        0.9424004        -62.7718
24.15                  0.9418979       -62.86336       0.04962002        36.96078       0.04962006        36.96083        0.9419003       -62.86547
24.16                  0.9414017       -62.95669       0.04952141        36.81512       0.04952145        36.81517         0.941404       -62.95881
24.17                  0.9409098        -63.0497       0.04941867        36.67087       0.04941872        36.67091        0.9409121       -63.05183
24.18                  0.9404226       -63.14242       0.04931187         36.5282       0.04931192        36.52824        0.9404247       -63.14456
24.19                    0.93994       -63.23486       0.04920108        36.38729       0.04920112        36.38734        0.9399423         -63.237
24.2                   0.9394626       -63.32705       0.04908636        36.24835       0.04908641        36.24837        0.9394648        -63.3292
24.21                  0.9389908         -63.419       0.04896781        36.11151       0.04896786        36.11154        0.9389929       -63.42116
24.22                  0.9385246       -63.51074       0.04884551        35.97697       0.04884557          35.977        0.9385267        -63.5129
24.23                  0.9380643        -63.6023       0.04871955         35.8449       0.04871961        35.84493        0.9380662       -63.60446
24.24                  0.9376101       -63.69369       0.04859004        35.71547       0.04859009        35.71549         0.937612       -63.69585
24.25                  0.9371622       -63.78494       0.04845706        35.58885       0.04845712        35.58887        0.9371639       -63.78711
24.26                  0.9367209       -63.87608       0.04832074         35.4652       0.04832079        35.46522        0.9367225       -63.87826
24.27                  0.9362862       -63.96713       0.04818117        35.34468       0.04818122        35.34469        0.9362877       -63.96931
24.28                  0.9358583       -64.05812       0.04803847        35.22746       0.04803852        35.22747        0.9358597        -64.0603
24.29                  0.9354373       -64.14907       0.04789276        35.11369       0.04789281         35.1137        0.9354385       -64.15126
24.3                   0.9350234       -64.24001       0.04774417        35.00353       0.04774422        35.00354        0.9350245       -64.24219
24.31                  0.9346166       -64.33097       0.04759281        34.89712       0.04759286        34.89714        0.9346177       -64.33315
24.32                  0.9342171       -64.42197       0.04743882        34.79463       0.04743888        34.79464        0.9342181       -64.42415
24.33                  0.9338249       -64.51303       0.04728234        34.69618       0.04728239        34.69619        0.9338257       -64.51522
24.34                  0.9334401        -64.6042        0.0471235        34.60194       0.04712355        34.60194        0.9334407       -64.60638
24.35                  0.9330626       -64.69549       0.04696244        34.51202       0.04696249        34.51202        0.9330631       -64.69767
24.36                  0.9326923       -64.78694       0.04679931        34.42656       0.04679937        34.42656         0.932693       -64.78911
24.37                  0.9323297       -64.87855       0.04663425         34.3457       0.04663431        34.34569          0.93233       -64.88073
24.38                  0.9319743       -64.97038       0.04646742        34.26955       0.04646747        34.26954        0.9319745       -64.97255
24.39                  0.9316261       -65.06244       0.04629896        34.19823       0.04629901        34.19821        0.9316262       -65.06461
24.4                   0.9312853       -65.15476       0.04612903        34.13186       0.04612908        34.13185        0.9312852       -65.15692
24.41                  0.9309517       -65.24736       0.04595779        34.07054       0.04595783        34.07053        0.9309514       -65.24952
24.42                   0.930625       -65.34028       0.04578538        34.01439       0.04578543        34.01437        0.9306247       -65.34243
24.43                  0.9303054       -65.43355       0.04561199        33.96349       0.04561203        33.96348        0.9303051       -65.43568
24.44                  0.9299926       -65.52717       0.04543776        33.91795        0.0454378        33.91792        0.9299921        -65.5293
24.45                  0.9296865       -65.62119       0.04526286        33.87783        0.0452629        33.87781        0.9296858       -65.62332
24.46                  0.9293872       -65.71561       0.04508746        33.84323        0.0450875         33.8432        0.9293862       -65.71774
24.47                   0.929094       -65.81049       0.04491172         33.8142       0.04491175        33.81418         0.929093       -65.81261
24.48                  0.9288072       -65.90583        0.0447358        33.79083       0.04473584         33.7908        0.9288061       -65.90793
24.49                  0.9285262       -66.00167       0.04455987        33.77315       0.04455991        33.77312        0.9285249       -66.00376
24.5                    0.928251       -66.09801       0.04438411        33.76123       0.04438415         33.7612        0.9282497       -66.10009
24.51                  0.9279815        -66.1949       0.04420867         33.7551       0.04420871        33.75507        0.9279801       -66.19696
24.52                  0.9277173       -66.29234       0.04403372         33.7548       0.04403375        33.75476        0.9277158       -66.29439
24.53                  0.9274581       -66.39037       0.04385943        33.76034       0.04385946         33.7603        0.9274565        -66.3924
24.54                  0.9272039       -66.48899       0.04368596        33.77174       0.04368599         33.7717        0.9272021       -66.49102
24.55                  0.9269541       -66.58823       0.04351348        33.78902       0.04351351        33.78898        0.9269523       -66.59025
24.56                  0.9267086       -66.68814       0.04334215        33.81215       0.04334217        33.81211        0.9267067       -66.69013
24.57                   0.926467        -66.7887       0.04317212        33.84114       0.04317214        33.84109         0.926465       -66.79067
24.58                  0.9262291       -66.88993       0.04300355        33.87596       0.04300358         33.8759        0.9262271        -66.8919
24.59                  0.9259946       -66.99186       0.04283661        33.91657       0.04283664        33.91652        0.9259925       -66.99382
24.6                   0.9257631       -67.09452       0.04267145        33.96294       0.04267146         33.9629        0.9257611       -67.09645
24.61                  0.9255343        -67.1979       0.04250821        34.01501       0.04250822        34.01497        0.9255321       -67.19982
24.62                  0.9253077       -67.30203       0.04234703        34.07272       0.04234705        34.07267        0.9253055       -67.30394
24.63                  0.9250833       -67.40692       0.04218807          34.136       0.04218809        34.13594        0.9250812       -67.40881
24.64                  0.9248604        -67.5126       0.04203147        34.20475       0.04203149         34.2047        0.9248583       -67.51446
24.65                   0.924639       -67.61905       0.04187736        34.27889       0.04187737        34.27883        0.9246367        -67.6209
24.66                  0.9244183       -67.72631       0.04172586        34.35832       0.04172587        34.35827        0.9244162       -67.72814
24.67                  0.9241984       -67.83439       0.04157711        34.44292       0.04157712        34.44286        0.9241962        -67.8362
24.68                  0.9239785       -67.94328       0.04143123        34.53256       0.04143124         34.5325        0.9239764       -67.94506
24.69                  0.9237585         -68.053       0.04128833         34.6271       0.04128833        34.62705        0.9237564       -68.05476
24.7                   0.9235378       -68.16357       0.04114852        34.72642       0.04114853        34.72636        0.9235358       -68.16531
24.71                  0.9233163       -68.27498       0.04101191        34.83035       0.04101191        34.83029        0.9233143        -68.2767
24.72                  0.9230935       -68.38725        0.0408786        34.93873       0.04087859        34.93867        0.9230914       -68.38896
24.73                  0.9228689       -68.50039       0.04074867        35.05137       0.04074866        35.05132         0.922867       -68.50207
24.74                  0.9226422       -68.61438       0.04062221        35.16811       0.04062221        35.16806        0.9226403       -68.61605
24.75                   0.922413       -68.72925        0.0404993        35.28876        0.0404993        35.28871        0.9224112        -68.7309
24.76                  0.9221808       -68.84501       0.04038003        35.41312       0.04038001        35.41307        0.9221793       -68.84662
24.77                  0.9219455       -68.96163       0.04026442        35.54099       0.04026442        35.54093         0.921944       -68.96322
24.78                  0.9217066       -69.07912       0.04015258        35.67214       0.04015256        35.67209        0.9217051        -69.0807
24.79                  0.9214636       -69.19751       0.04004452        35.80637       0.04004451        35.80632        0.9214623       -69.19906
24.8                   0.9212163       -69.31677        0.0399403        35.94345       0.03994029         35.9434         0.921215        -69.3183
24.81                  0.9209641       -69.43692       0.03983996        36.08315       0.03983994        36.08311         0.920963       -69.43842
24.82                  0.9207068       -69.55793       0.03974351        36.22525        0.0397435         36.2252        0.9207059       -69.55942
24.83                  0.9204438       -69.67984       0.03965099        36.36951       0.03965097        36.36946        0.9204431        -69.6813
24.84                   0.920175        -69.8026       0.03956239        36.51567       0.03956237        36.51562        0.9201747       -69.80405
24.85                  0.9199001       -69.92625       0.03947773        36.66352       0.03947771        36.66347        0.9198999       -69.92766
24.86                  0.9196186       -70.05075         0.039397        36.81279       0.03939697        36.81274        0.9196185       -70.05214
24.87                  0.9193301       -70.17612       0.03932018        36.96325       0.03932016        36.96321        0.9193302       -70.17749
24.88                  0.9190344       -70.30235       0.03924726        37.11465       0.03924724         37.1146        0.9190347        -70.3037
24.89                  0.9187311       -70.42942       0.03917822        37.26675        0.0391782        37.26671        0.9187317       -70.43074
24.9                   0.9184197       -70.55733       0.03911302         37.4193       0.03911299        37.41927        0.9184206       -70.55864
24.91                  0.9181003       -70.68608       0.03905161        37.57209       0.03905159        37.57205        0.9181013       -70.68736
24.92                  0.9177721       -70.81564       0.03899395        37.72485       0.03899392        37.72481        0.9177735       -70.81691
24.93                  0.9174353       -70.94604       0.03893998        37.87735       0.03893995        37.87731        0.9174369       -70.94728
24.94                  0.9170892       -71.07722       0.03888964        38.02937       0.03888961        38.02934         0.917091       -71.07844
24.95                  0.9167337       -71.20921       0.03884286        38.18069       0.03884282        38.18067        0.9167358       -71.21041
24.96                  0.9163686       -71.34199       0.03879955        38.33109       0.03879952        38.33106         0.916371       -71.34317